<PP_INFO>
Generated using "atomic" code by A. Dal Corso  (espresso distribution)     
Author: anonymous   Generation date: 22Dec2005                             
O                                                                          
    0        The Pseudo was generated with a Non-Relativistic Calculation
    2 1.4000000E+00    L component and cutoff radius for Local Potential
nl pn  l   occ               Rcut            Rcut US             E pseu
2S  2  0  2.00      1.40000000000      1.40000000000     -1.75785089937
2S  2  0  0.00      1.40000000000      1.40000000000     -0.66422507880
2P  2  1  4.00      1.40000000000      1.40000000000     -0.66426293157
2P  2  1  0.00      1.40000000000      1.40000000000      0.05000000000
3D  3  2 -2.00      1.40000000000      1.40000000000      0.15000000000
</PP_INFO>


<PP_HEADER>
   0                   Version Number
   O                   Element
   US                  Ultrasoft pseudopotential
    T                  Nonlinear Core Correction
 SLA  PW   PBX  PBC    PBE  Exchange-Correlation functional
    6.00000000000      Z valence
  -31.44834589112      Total energy
  0.0000000  0.0000000 Suggested cutoff for wfc and rho
    2                  Max angular momentum component
 1095                  Number of points in mesh
    2    4             Number of Wavefunctions, Number of Projectors
 Wavefunctions         nl  l   occ
                       2S  0  2.00
                       2P  1  4.00
</PP_HEADER>


<PP_MESH>
  <PP_R>
  1.13985245694E-04  1.15419003584E-04  1.16870795927E-04  1.18340849570E-04
  1.19829394212E-04  1.21336662440E-04  1.22862889769E-04  1.24408314674E-04
  1.25973178631E-04  1.27557726154E-04  1.29162204831E-04  1.30786865365E-04
  1.32431961613E-04  1.34097750625E-04  1.35784492683E-04  1.37492451344E-04
  1.39221893481E-04  1.40973089321E-04  1.42746312494E-04  1.44541840068E-04
  1.46359952599E-04  1.48200934170E-04  1.50065072439E-04  1.51952658681E-04
  1.53863987834E-04  1.55799358549E-04  1.57759073231E-04  1.59743438088E-04
  1.61752763183E-04  1.63787362476E-04  1.65847553878E-04  1.67933659298E-04
  1.70046004693E-04  1.72184920123E-04  1.74350739797E-04  1.76543802129E-04
  1.78764449788E-04  1.81013029757E-04  1.83289893380E-04  1.85595396422E-04
  1.87929899122E-04  1.90293766251E-04  1.92687367169E-04  1.95111075879E-04
  1.97565271092E-04  2.00050336281E-04  2.02566659741E-04  2.05114634654E-04
  2.07694659147E-04  2.10307136352E-04  2.12952474475E-04  2.15631086856E-04
  2.18343392033E-04  2.21089813809E-04  2.23870781318E-04  2.26686729092E-04
  2.29538097129E-04  2.32425330960E-04  2.35348881722E-04  2.38309206226E-04
  2.41306767028E-04  2.44342032504E-04  2.47415476919E-04  2.50527580506E-04
  2.53678829537E-04  2.56869716401E-04  2.60100739681E-04  2.63372404231E-04
  2.66685221255E-04  2.70039708387E-04  2.73436389773E-04  2.76875796151E-04
  2.80358464936E-04  2.83884940301E-04  2.87455773266E-04  2.91071521780E-04
  2.94732750811E-04  2.98440032435E-04  3.02193945921E-04  3.05995077825E-04
  3.09844022083E-04  3.13741380100E-04  3.17687760846E-04  3.21683780951E-04
  3.25730064801E-04  3.29827244636E-04  3.33975960650E-04  3.38176861087E-04
  3.42430602346E-04  3.46737849084E-04  3.51099274316E-04  3.55515559524E-04
  3.59987394761E-04  3.64515478761E-04  3.69100519047E-04  3.73743232039E-04
  3.78444343172E-04  3.83204587003E-04  3.88024707331E-04  3.92905457309E-04
  3.97847599564E-04  4.02851906315E-04  4.07919159497E-04  4.13050150877E-04
  4.18245682184E-04  4.23506565229E-04  4.28833622037E-04  4.34227684971E-04
  4.39689596864E-04  4.45220211151E-04  4.50820392002E-04  4.56491014456E-04
  4.62232964560E-04  4.68047139506E-04  4.73934447769E-04  4.79895809253E-04
  4.85932155435E-04  4.92044429504E-04  4.98233586516E-04  5.04500593540E-04
  5.10846429808E-04  5.17272086870E-04  5.23778568748E-04  5.30366892093E-04
  5.37038086344E-04  5.43793193889E-04  5.50633270226E-04  5.57559384132E-04
  5.64572617827E-04  5.71674067141E-04  5.78864841692E-04  5.86146065051E-04
  5.93518874926E-04  6.00984423333E-04  6.08543876779E-04  6.16198416443E-04
  6.23949238364E-04  6.31797553622E-04  6.39744588534E-04  6.47791584839E-04
  6.55939799898E-04  6.64190506884E-04  6.72544994989E-04  6.81004569617E-04
  6.89570552595E-04  6.98244282375E-04  7.07027114244E-04  7.15920420539E-04
  7.24925590855E-04  7.34044032270E-04  7.43277169559E-04  7.52626445418E-04
  7.62093320689E-04  7.71679274593E-04  7.81385804954E-04  7.91214428436E-04
  8.01166680782E-04  8.11244117052E-04  8.21448311866E-04  8.31780859650E-04
  8.42243374886E-04  8.52837492362E-04  8.63564867432E-04  8.74427176269E-04
  8.85426116132E-04  8.96563405626E-04  9.07840784977E-04  9.19260016297E-04
  9.30822883866E-04  9.42531194403E-04  9.54386777357E-04  9.66391485188E-04
  9.78547193653E-04  9.90855802109E-04  1.00331923380E-03  1.01593943616E-03
  1.02871838113E-03  1.04165806543E-03  1.05476051093E-03  1.06802776491E-03
  1.08146190039E-03  1.09506501650E-03  1.10883923874E-03  1.12278671937E-03
  1.13690963771E-03  1.15121020050E-03  1.16569064222E-03  1.18035322547E-03
  1.19520024132E-03  1.21023400963E-03  1.22545687948E-03  1.24087122945E-03
  1.25647946808E-03  1.27228403418E-03  1.28828739725E-03  1.30449205785E-03
  1.32090054798E-03  1.33751543151E-03  1.35433930455E-03  1.37137479587E-03
  1.38862456728E-03  1.40609131411E-03  1.42377776556E-03  1.44168668519E-03
  1.45982087130E-03  1.47818315739E-03  1.49677641260E-03  1.51560354217E-03
  1.53466748788E-03  1.55397122851E-03  1.57351778030E-03  1.59331019745E-03
  1.61335157256E-03  1.63364503713E-03  1.65419376207E-03  1.67500095814E-03
  1.69606987653E-03  1.71740380928E-03  1.73900608987E-03  1.76088009370E-03
  1.78302923862E-03  1.80545698550E-03  1.82816683870E-03  1.85116234669E-03
  1.87444710256E-03  1.89802474460E-03  1.92189895688E-03  1.94607346977E-03
  1.97055206061E-03  1.99533855421E-03  2.02043682352E-03  2.04585079020E-03
  2.07158442522E-03  2.09764174953E-03  2.12402683462E-03  2.15074380323E-03
  2.17779682994E-03  2.20519014183E-03  2.23292801916E-03  2.26101479605E-03
  2.28945486109E-03  2.31825265812E-03  2.34741268684E-03  2.37693950356E-03
  2.40683772192E-03  2.43711201357E-03  2.46776710894E-03  2.49880779793E-03
  2.53023893073E-03  2.56206541850E-03  2.59429223421E-03  2.62692441336E-03
  2.65996705480E-03  2.69342532150E-03  2.72730444138E-03  2.76160970813E-03
  2.79634648202E-03  2.83152019074E-03  2.86713633024E-03  2.90320046563E-03
  2.93971823200E-03  2.97669533533E-03  3.01413755335E-03  3.05205073650E-03
  3.09044080879E-03  3.12931376875E-03  3.16867569034E-03  3.20853272396E-03
  3.24889109734E-03  3.28975711657E-03  3.33113716704E-03  3.37303771448E-03
  3.41546530591E-03  3.45842657075E-03  3.50192822178E-03  3.54597705621E-03
  3.59057995678E-03  3.63574389277E-03  3.68147592114E-03  3.72778318761E-03
  3.77467292779E-03  3.82215246829E-03  3.87022922790E-03  3.91891071869E-03
  3.96820454726E-03  4.01811841586E-03  4.06866012364E-03  4.11983756784E-03
  4.17165874504E-03  4.22413175241E-03  4.27726478896E-03  4.33106615683E-03
  4.38554426261E-03  4.44070761859E-03  4.49656484418E-03  4.55312466717E-03
  4.61039592516E-03  4.66838756688E-03  4.72710865367E-03  4.78656836079E-03
  4.84677597897E-03  4.90774091574E-03  4.96947269703E-03  5.03198096853E-03
  5.09527549730E-03  5.15936617322E-03  5.22426301061E-03  5.28997614973E-03
  5.35651585838E-03  5.42389253353E-03  5.49211670293E-03  5.56119902673E-03
  5.63115029919E-03  5.70198145035E-03  5.77370354771E-03  5.84632779799E-03
  5.91986554889E-03  5.99432829083E-03  6.06972765875E-03  6.14607543397E-03
  6.22338354598E-03  6.30166407433E-03  6.38092925052E-03  6.46119145988E-03
  6.54246324355E-03  6.62475730042E-03  6.70808648909E-03  6.79246382992E-03
  6.87790250705E-03  6.96441587044E-03  7.05201743797E-03  7.14072089758E-03
  7.23054010935E-03  7.32148910773E-03  7.41358210368E-03  7.50683348691E-03
  7.60125782815E-03  7.69686988139E-03  7.79368458621E-03  7.89171707010E-03
  7.99098265084E-03  8.09149683887E-03  8.19327533975E-03  8.29633405657E-03
  8.40068909247E-03  8.50635675313E-03  8.61335354933E-03  8.72169619956E-03
  8.83140163255E-03  8.94248699002E-03  9.05496962928E-03  9.16886712597E-03
  9.28419727679E-03  9.40097810233E-03  9.51922784983E-03  9.63896499604E-03
  9.76020825014E-03  9.88297655665E-03  1.00072890983E-02  1.01331652993E-02
  1.02606248280E-02  1.03896876002E-02  1.05203737822E-02  1.06527037940E-02
  1.07866983124E-02  1.09223782744E-02  1.10597648803E-02  1.11988795969E-02
  1.13397441612E-02  1.14823805836E-02  1.16268111513E-02  1.17730584320E-02
  1.19211452769E-02  1.20710948251E-02  1.22229305064E-02  1.23766760455E-02
  1.25323554654E-02  1.26899930913E-02  1.28496135544E-02  1.30112417958E-02
  1.31749030702E-02  1.33406229501E-02  1.35084273294E-02  1.36783424279E-02
  1.38503947953E-02  1.40246113150E-02  1.42010192088E-02  1.43796460408E-02
  1.45605197217E-02  1.47436685134E-02  1.49291210333E-02  1.51169062588E-02
  1.53070535316E-02  1.54995925627E-02  1.56945534366E-02  1.58919666165E-02
  1.60918629485E-02  1.62942736668E-02  1.64992303985E-02  1.67067651685E-02
  1.69169104046E-02  1.71296989423E-02  1.73451640304E-02  1.75633393356E-02
  1.77842589483E-02  1.80079573877E-02  1.82344696070E-02  1.84638309993E-02
  1.86960774028E-02  1.89312451064E-02  1.91693708556E-02  1.94104918580E-02
  1.96546457892E-02  1.99018707988E-02  2.01522055162E-02  2.04056890567E-02
  2.06623610277E-02  2.09222615346E-02  2.11854311874E-02  2.14519111070E-02
  2.17217429313E-02  2.19949688221E-02  2.22716314716E-02  2.25517741088E-02
  2.28354405066E-02  2.31226749884E-02  2.34135224352E-02  2.37080282926E-02
  2.40062385776E-02  2.43081998862E-02  2.46139594005E-02  2.49235648961E-02
  2.52370647493E-02  2.55545079453E-02  2.58759440851E-02  2.62014233939E-02
  2.65309967283E-02  2.68647155850E-02  2.72026321082E-02  2.75447990979E-02
  2.78912700186E-02  2.82420990069E-02  2.85973408807E-02  2.89570511471E-02
  2.93212860117E-02  2.96901023869E-02  3.00635579010E-02  3.04417109072E-02
  3.08246204927E-02  3.12123464878E-02  3.16049494756E-02  3.20024908010E-02
  3.24050325807E-02  3.28126377127E-02  3.32253698861E-02  3.36432935911E-02
  3.40664741293E-02  3.44949776232E-02  3.49288710277E-02  3.53682221393E-02
  3.58130996075E-02  3.62635729455E-02  3.67197125404E-02  3.71815896652E-02
  3.76492764890E-02  3.81228460889E-02  3.86023724610E-02  3.90879305324E-02
  3.95795961724E-02  4.00774462048E-02  4.05815584198E-02  4.10920115858E-02
  4.16088854623E-02  4.21322608117E-02  4.26622194126E-02  4.31988440721E-02
  4.37422186389E-02  4.42924280163E-02  4.48495581757E-02  4.54136961699E-02
  4.59849301464E-02  4.65633493619E-02  4.71490441954E-02  4.77421061630E-02
  4.83426279318E-02  4.89507033346E-02  4.95664273844E-02  5.01898962893E-02
  5.08212074676E-02  5.14604595629E-02  5.21077524598E-02  5.27631872990E-02
  5.34268664936E-02  5.40988937447E-02  5.47793740581E-02  5.54684137601E-02
  5.61661205147E-02  5.68726033398E-02  5.75879726249E-02  5.83123401479E-02
  5.90458190926E-02  5.97885240668E-02  6.05405711194E-02  6.13020777595E-02
  6.20731629739E-02  6.28539472464E-02  6.36445525759E-02  6.44451024963E-02
  6.52557220951E-02  6.60765380332E-02  6.69076785649E-02  6.77492735574E-02
  6.86014545118E-02  6.94643545829E-02  7.03381086009E-02  7.12228530914E-02
  7.21187262976E-02  7.30258682015E-02  7.39444205459E-02  7.48745268564E-02
  7.58163324641E-02  7.67699845280E-02  7.77356320581E-02  7.87134259390E-02
  7.97035189527E-02  8.07060658035E-02  8.17212231412E-02  8.27491495864E-02
  8.37900057545E-02  8.48439542814E-02  8.59111598489E-02  8.69917892098E-02
  8.80860112148E-02  8.91939968383E-02  9.03159192053E-02  9.14519536183E-02
  9.26022775852E-02  9.37670708464E-02  9.49465154031E-02  9.61407955461E-02
  9.73500978839E-02  9.85746113726E-02  9.98145273449E-02  1.01070039540E-01
  1.02341344135E-01  1.03628639773E-01  1.04932127596E-01  1.06252011278E-01
  1.07588497053E-01  1.08941793750E-01  1.10312112823E-01  1.11699668389E-01
  1.13104677254E-01  1.14527358956E-01  1.15967935791E-01  1.17426632852E-01
  1.18903678063E-01  1.20399302215E-01  1.21913739004E-01  1.23447225062E-01
  1.25000000000E-01  1.26572306443E-01  1.28164390066E-01  1.29776499635E-01
  1.31408887047E-01  1.33061807365E-01  1.34735518861E-01  1.36430283055E-01
  1.38146364759E-01  1.39884032114E-01  1.41643556633E-01  1.43425213247E-01
  1.45229280341E-01  1.47056039806E-01  1.48905777077E-01  1.50778781178E-01
  1.52675344770E-01  1.54595764196E-01  1.56540339524E-01  1.58509374599E-01
  1.60503177086E-01  1.62522058521E-01  1.64566334358E-01  1.66636324020E-01
  1.68732350947E-01  1.70854742647E-01  1.73003830748E-01  1.75179951049E-01
  1.77383443574E-01  1.79614652623E-01  1.81873926827E-01  1.84161619202E-01
  1.86478087205E-01  1.88823692788E-01  1.91198802458E-01  1.93603787329E-01
  1.96039023186E-01  1.98504890539E-01  2.01001774686E-01  2.03530065768E-01
  2.06090158838E-01  2.08682453913E-01  2.11307356047E-01  2.13965275386E-01
  2.16656627233E-01  2.19381832120E-01  2.22141315864E-01  2.24935509641E-01
  2.27764850049E-01  2.30629779178E-01  2.33530744679E-01  2.36468199834E-01
  2.39442603627E-01  2.42454420813E-01  2.45504121996E-01  2.48592183698E-01
  2.51719088434E-01  2.54885324790E-01  2.58091387496E-01  2.61337777506E-01
  2.64625002077E-01  2.67953574842E-01  2.71324015898E-01  2.74736851884E-01
  2.78192616062E-01  2.81691848402E-01  2.85235095666E-01  2.88822911495E-01
  2.92455856491E-01  2.96134498309E-01  2.99859411746E-01  3.03631178826E-01
  3.07450388895E-01  3.11317638712E-01  3.15233532545E-01  3.19198682258E-01
  3.23213707414E-01  3.27279235370E-01  3.31395901373E-01  3.35564348659E-01
  3.39785228557E-01  3.44059200589E-01  3.48386932571E-01  3.52769100719E-01
  3.57206389758E-01  3.61699493021E-01  3.66249112567E-01  3.70855959281E-01
  3.75520752993E-01  3.80244222587E-01  3.85027106115E-01  3.89870150911E-01
  3.94774113711E-01  3.99739760770E-01  4.04767867980E-01  4.09859220992E-01
  4.15014615342E-01  4.20234856570E-01  4.25520760349E-01  4.30873152612E-01
  4.36292869683E-01  4.41780758402E-01  4.47337676263E-01  4.52964491546E-01
  4.58662083452E-01  4.64431342243E-01  4.70273169375E-01  4.76188477647E-01
  4.82178191337E-01  4.88243246351E-01  4.94384590365E-01  5.00603182977E-01
  5.06899995856E-01  5.13276012889E-01  5.19732230345E-01  5.26269657018E-01
  5.32889314396E-01  5.39592236814E-01  5.46379471616E-01  5.53252079323E-01
  5.60211133792E-01  5.67257722391E-01  5.74392946163E-01  5.81617920002E-01
  5.88933772824E-01  5.96341647746E-01  6.03842702264E-01  6.11438108432E-01
  6.19129053049E-01  6.26916737841E-01  6.34802379648E-01  6.42787210618E-01
  6.50872478397E-01  6.59059446326E-01  6.67349393634E-01  6.75743615643E-01
  6.84243423966E-01  6.92850146716E-01  7.01565128712E-01  7.10389731686E-01
  7.19325334501E-01  7.28373333363E-01  7.37535142040E-01  7.46812192084E-01
  7.56205933052E-01  7.65717832735E-01  7.75349377388E-01  7.85102071959E-01
  7.94977440325E-01  8.04977025534E-01  8.15102390041E-01  8.25355115955E-01
  8.35736805285E-01  8.46249080191E-01  8.56893583237E-01  8.67671977650E-01
  8.78585947574E-01  8.89637198339E-01  9.00827456728E-01  9.12158471238E-01
  9.23632012366E-01  9.35249872875E-01  9.47013868080E-01  9.58925836128E-01
  9.70987638288E-01  9.83201159243E-01  9.95568307379E-01  1.00809101509E+00
  1.02077123907E+00  1.03361096064E+00  1.04661218602E+00  1.05977694668E+00
  1.07310729965E+00  1.08660532781E+00  1.10027314027E+00  1.11411287265E+00
  1.12812668743E+00  1.14231677430E+00  1.15668535049E+00  1.17123466112E+00
  1.18596697954E+00  1.20088460773E+00  1.21598987657E+00  1.23128514631E+00
  1.24677280685E+00  1.26245527819E+00  1.27833501072E+00  1.29441448571E+00
  1.31069621559E+00  1.32718274442E+00  1.34387664826E+00  1.36078053556E+00
  1.37789704758E+00  1.39522885882E+00  1.41277867741E+00  1.43054924554E+00
  1.44854333990E+00  1.46676377211E+00  1.48521338914E+00  1.50389507378E+00
  1.52281174509E+00  1.54196635883E+00  1.56136190795E+00  1.58100142305E+00
  1.60088797283E+00  1.62102466462E+00  1.64141464481E+00  1.66206109938E+00
  1.68296725438E+00  1.70413637643E+00  1.72557177326E+00  1.74727679419E+00
  1.76925483067E+00  1.79150931682E+00  1.81404372995E+00  1.83686159110E+00
  1.85996646561E+00  1.88336196366E+00  1.90705174086E+00  1.93103949877E+00
  1.95532898552E+00  1.97992399641E+00  2.00482837446E+00  2.03004601101E+00
  2.05558084639E+00  2.08143687045E+00  2.10761812326E+00  2.13412869569E+00
  2.16097273007E+00  2.18815442084E+00  2.21567801518E+00  2.24354781373E+00
  2.27176817118E+00  2.30034349703E+00  2.32927825624E+00  2.35857696991E+00
  2.38824421603E+00  2.41828463017E+00  2.44870290620E+00  2.47950379704E+00
  2.51069211540E+00  2.54227273451E+00  2.57425058890E+00  2.60663067519E+00
  2.63941805282E+00  2.67261784489E+00  2.70623523894E+00  2.74027548775E+00
  2.77474391018E+00  2.80964589199E+00  2.84498688669E+00  2.88077241638E+00
  2.91700807262E+00  2.95369951730E+00  2.99085248355E+00  3.02847277658E+00
  3.06656627464E+00  3.10513892992E+00  3.14419676948E+00  3.18374589618E+00
  3.22379248965E+00  3.26434280726E+00  3.30540318507E+00  3.34698003886E+00
  3.38907986508E+00  3.43170924193E+00  3.47487483033E+00  3.51858337500E+00
  3.56284170547E+00  3.60765673721E+00  3.65303547265E+00  3.69898500232E+00
  3.74551250592E+00  3.79262525348E+00  3.84033060644E+00  3.88863601887E+00
  3.93754903859E+00  3.98707730836E+00  4.03722856708E+00  4.08801065097E+00
  4.13943149484E+00  4.19149913330E+00  4.24422170203E+00  4.29760743904E+00
  4.35166468595E+00  4.40640188932E+00  4.46182760196E+00  4.51795048423E+00
  4.57477930546E+00  4.63232294526E+00  4.69059039495E+00  4.74959075893E+00
  4.80933325613E+00  4.86982722143E+00  4.93108210715E+00  4.99310748448E+00
  5.05591304501E+00  5.11950860224E+00  5.18390409310E+00  5.24910957953E+00
  5.31513525001E+00  5.38199142118E+00  5.44968853947E+00  5.51823718267E+00
  5.58764806166E+00  5.65793202203E+00  5.72910004579E+00  5.80116325309E+00
  5.87413290395E+00  5.94802040002E+00  6.02283728639E+00  6.09859525333E+00
  6.17530613819E+00  6.25298192720E+00  6.33163475735E+00  6.41127691832E+00
  6.49192085435E+00  6.57357916623E+00  6.65626461322E+00  6.73999011510E+00
  6.82476875414E+00  6.91061377719E+00  6.99753859771E+00  7.08555679786E+00
  7.17468213068E+00  7.26492852218E+00  7.35631007354E+00  7.44884106332E+00
  7.54253594967E+00  7.63740937261E+00  7.73347615630E+00  7.83075131137E+00
  7.92925003727E+00  8.02898772461E+00  8.12997995763E+00  8.23224251655E+00
  8.33579138012E+00  8.44064272804E+00  8.54681294357E+00  8.65431861601E+00
  8.76317654334E+00  8.87340373483E+00  8.98501741371E+00  9.09803501984E+00
  9.21247421245E+00  9.32835287290E+00  9.44568910747E+00  9.56450125017E+00
  9.68480786566E+00  9.80662775208E+00  9.92997994403E+00  1.00548837156E+01
  1.01813585831E+01  1.03094243087E+01  1.04391009028E+01  1.05704086276E+01
  1.07033680003E+01  1.08379997960E+01  1.09743250512E+01  1.11123650671E+01
  1.12521414126E+01  1.13936759281E+01  1.15369907286E+01  1.16821082074E+01
  1.18290510394E+01  1.19778421846E+01  1.21285048921E+01  1.22810627032E+01
  1.24355394552E+01  1.25919592857E+01  1.27503466353E+01  1.29107262526E+01
  1.30731231971E+01  1.32375628438E+01  1.34040708865E+01  1.35726733426E+01
  1.37433965565E+01  1.39162672041E+01  1.40913122968E+01  1.42685591856E+01
  1.44480355659E+01  1.46297694811E+01  1.48137893276E+01  1.50001238588E+01
  1.51888021898E+01  1.53798538021E+01  1.55733085479E+01  1.57691966548E+01
  1.59675487308E+01  1.61683957687E+01  1.63717691514E+01  1.65777006563E+01
  1.67862224606E+01  1.69973671464E+01  1.72111677054E+01  1.74276575443E+01
  1.76468704902E+01  1.78688407955E+01  1.80936031435E+01  1.83211926539E+01
  1.85516448878E+01  1.87849958540E+01  1.90212820141E+01  1.92605402881E+01
  1.95028080608E+01  1.97481231869E+01  1.99965239974E+01  2.02480493055E+01
  2.05027384125E+01  2.07606311141E+01  2.10217677065E+01  2.12861889929E+01
  2.15539362896E+01  2.18250514327E+01  2.20995767846E+01  2.23775552402E+01
  2.26590302344E+01  2.29440457482E+01  2.32326463157E+01  2.35248770316E+01
  2.38207835573E+01  2.41204121290E+01  2.44238095641E+01  2.47310232691E+01
  2.50421012468E+01  2.53570921039E+01  2.56760450581E+01  2.59990099466E+01
  2.63260372333E+01  2.66571780169E+01  2.69924840388E+01  2.73320076913E+01
  2.76758020255E+01  2.80239207601E+01  2.83764182894E+01  2.87333496918E+01
  2.90947707385E+01  2.94607379023E+01  2.98313083663E+01  3.02065400330E+01
  3.05864915330E+01  3.09712222346E+01  3.13607922526E+01  3.17552624582E+01
  3.21546944882E+01  3.25591507546E+01  3.29686944546E+01  3.33833895802E+01
  3.38033009283E+01  3.42284941109E+01  3.46590355654E+01  3.50949925647E+01
  3.55364332280E+01  3.59834265313E+01  3.64360423182E+01  3.68943513108E+01
  3.73584251209E+01  3.78283362609E+01  3.83041581554E+01  3.87859651526E+01
  3.92738325357E+01  3.97678365351E+01  4.02680543398E+01  4.07745641100E+01
  4.12874449887E+01  4.18067771147E+01  4.23326416347E+01  4.28651207161E+01
  4.34042975598E+01  4.39502564134E+01  4.45030825838E+01  4.50628624515E+01
  4.56296834832E+01  4.62036342457E+01  4.67848044200E+01  4.73732848153E+01
  4.79691673826E+01  4.85725452300E+01  4.91835126364E+01  4.98021650667E+01
  5.04285991866E+01  5.10629128777E+01  5.17052052529E+01  5.23555766716E+01
  5.30141287556E+01  5.36809644051E+01  5.43561878145E+01  5.50399044889E+01
  5.57322212603E+01  5.64332463047E+01  5.71430891586E+01  5.78618607365E+01
  5.85896733478E+01  5.93266407148E+01  6.00728779901E+01  6.08285017748E+01
  6.15936301367E+01  6.23683826285E+01  6.31528803071E+01  6.39472457517E+01
  6.47516030835E+01  6.55660779851E+01  6.63907977198E+01  6.72258911516E+01
  6.80714887657E+01  6.89277226885E+01  6.97947267081E+01  7.06726362958E+01
  7.15615886267E+01  7.24617226014E+01  7.33731788677E+01  7.42960998425E+01
  7.52306297340E+01  7.61769145645E+01  7.71351021929E+01  7.81053423379E+01
  7.90877866015E+01  8.00825884928E+01  8.10899034514E+01  8.21098888724E+01
  8.31427041305E+01  8.41885106054E+01  8.52474717063E+01  8.63197528982E+01
  8.74055217270E+01  8.85049478464E+01  8.96182030440E+01  9.07454612682E+01
  9.18868986552E+01  9.30426935572E+01  9.42130265693E+01  9.53980805585E+01
  9.65980406919E+01  9.78130944657E+01  9.90434317344E+01
  </PP_R>
  <PP_RAB>
  1.42481557118E-06  1.44273754480E-06  1.46088494909E-06  1.47926061963E-06
  1.49786742765E-06  1.51670828050E-06  1.53578612211E-06  1.55510393342E-06
  1.57466473289E-06  1.59447157692E-06  1.61452756039E-06  1.63483581707E-06
  1.65539952017E-06  1.67622188281E-06  1.69730615854E-06  1.71865564180E-06
  1.74027366851E-06  1.76216361651E-06  1.78432890617E-06  1.80677300085E-06
  1.82949940749E-06  1.85251167713E-06  1.87581340549E-06  1.89940823351E-06
  1.92329984793E-06  1.94749198186E-06  1.97198841538E-06  1.99679297610E-06
  2.02190953979E-06  2.04734203096E-06  2.07309442348E-06  2.09917074122E-06
  2.12557505867E-06  2.15231150154E-06  2.17938424746E-06  2.20679752661E-06
  2.23455562236E-06  2.26266287197E-06  2.29112366725E-06  2.31994245528E-06
  2.34912373903E-06  2.37867207814E-06  2.40859208961E-06  2.43888844849E-06
  2.46956588865E-06  2.50062920351E-06  2.53208324676E-06  2.56393293318E-06
  2.59618323933E-06  2.62883920440E-06  2.66190593094E-06  2.69538858570E-06
  2.72929240041E-06  2.76362267261E-06  2.79838476647E-06  2.83358411365E-06
  2.86922621411E-06  2.90531663700E-06  2.94186102153E-06  2.97886507783E-06
  3.01633458786E-06  3.05427540630E-06  3.09269346149E-06  3.13159475632E-06
  3.17098536921E-06  3.21087145501E-06  3.25125924601E-06  3.29215505289E-06
  3.33356526568E-06  3.37549635484E-06  3.41795487216E-06  3.46094745189E-06
  3.50448081170E-06  3.54856175376E-06  3.59319716582E-06  3.63839402225E-06
  3.68415938514E-06  3.73050040543E-06  3.77742432401E-06  3.82493847281E-06
  3.87305027604E-06  3.92176725125E-06  3.97109701058E-06  4.02104726189E-06
  4.07162581001E-06  4.12284055796E-06  4.17469950812E-06  4.22721076358E-06
  4.28038252933E-06  4.33422311355E-06  4.38874092895E-06  4.44394449405E-06
  4.49984243451E-06  4.55644348452E-06  4.61375648808E-06  4.67179040049E-06
  4.73055428965E-06  4.79005733754E-06  4.85030884164E-06  4.91131821636E-06
  4.97309499455E-06  5.03564882894E-06  5.09898949371E-06  5.16312688597E-06
  5.22807102730E-06  5.29383206537E-06  5.36042027547E-06  5.42784606214E-06
  5.49611996080E-06  5.56525263939E-06  5.63525490002E-06  5.70613768070E-06
  5.77791205700E-06  5.85058924382E-06  5.92418059711E-06  5.99869761567E-06
  6.07415194293E-06  6.15055536880E-06  6.22791983145E-06  6.30625741925E-06
  6.38558037260E-06  6.46590108588E-06  6.54723210935E-06  6.62958615116E-06
  6.71297607930E-06  6.79741492361E-06  6.88291587783E-06  6.96949230165E-06
  7.05715772283E-06  7.14592583926E-06  7.23581052115E-06  7.32682581314E-06
  7.41898593658E-06  7.51230529166E-06  7.60679845973E-06  7.70248020554E-06
  7.79936547955E-06  7.89746942028E-06  7.99680735668E-06  8.09739481049E-06
  8.19924749872E-06  8.30238133605E-06  8.40681243736E-06  8.51255712022E-06
  8.61963190744E-06  8.72805352968E-06  8.83783892805E-06  8.94900525673E-06
  9.06156988569E-06  9.17555040338E-06  9.29096461949E-06  9.40783056772E-06
  9.52616650862E-06  9.64599093241E-06  9.76732256192E-06  9.89018035545E-06
  1.00145835098E-05  1.01405514632E-05  1.02681038983E-05  1.03972607456E-05
  1.05280421861E-05  1.06604686545E-05  1.07945608429E-05  1.09303397034E-05
  1.10678264516E-05  1.12070425703E-05  1.13480098122E-05  1.14907502037E-05
  1.16352860483E-05  1.17816399300E-05  1.19298347170E-05  1.20798935648E-05
  1.22318399207E-05  1.23856975264E-05  1.25414904225E-05  1.26992429520E-05
  1.28589797641E-05  1.30207258179E-05  1.31845063866E-05  1.33503470613E-05
  1.35182737549E-05  1.36883127062E-05  1.38604904843E-05  1.40348339921E-05
  1.42113704714E-05  1.43901275062E-05  1.45711330277E-05  1.47544153184E-05
  1.49400030165E-05  1.51279251204E-05  1.53182109935E-05  1.55108903681E-05
  1.57059933510E-05  1.59035504273E-05  1.61035924656E-05  1.63061507231E-05
  1.65112568498E-05  1.67189428939E-05  1.69292413069E-05  1.71421849483E-05
  1.73578070910E-05  1.75761414263E-05  1.77972220696E-05  1.80210835649E-05
  1.82477608912E-05  1.84772894673E-05  1.87097051575E-05  1.89450442772E-05
  1.91833435985E-05  1.94246403564E-05  1.96689722538E-05  1.99163774682E-05
  2.01668946570E-05  2.04205629642E-05  2.06774220258E-05  2.09375119768E-05
  2.12008734566E-05  2.14675476160E-05  2.17375761233E-05  2.20110011712E-05
  2.22878654828E-05  2.25682123187E-05  2.28520854837E-05  2.31395293336E-05
  2.34305887820E-05  2.37253093076E-05  2.40237369610E-05  2.43259183722E-05
  2.46319007576E-05  2.49417319276E-05  2.52554602940E-05  2.55731348775E-05
  2.58948053153E-05  2.62205218691E-05  2.65503354328E-05  2.68842975404E-05
  2.72224603742E-05  2.75648767728E-05  2.79116002396E-05  2.82626849506E-05
  2.86181857636E-05  2.89781582265E-05  2.93426585854E-05  2.97117437945E-05
  3.00854715240E-05  3.04639001697E-05  3.08470888617E-05  3.12350974741E-05
  3.16279866341E-05  3.20258177313E-05  3.24286529277E-05  3.28365551670E-05
  3.32495881850E-05  3.36678165187E-05  3.40913055173E-05  3.45201213517E-05
  3.49543310253E-05  3.53940023842E-05  3.58392041280E-05  3.62900058204E-05
  3.67464779000E-05  3.72086916916E-05  3.76767194169E-05  3.81506342063E-05
  3.86305101099E-05  3.91164221093E-05  3.96084461293E-05  4.01066590495E-05
  4.06111387168E-05  4.11219639572E-05  4.16392145881E-05  4.21629714309E-05
  4.26933163239E-05  4.32303321344E-05  4.37741027722E-05  4.43247132027E-05
  4.48822494597E-05  4.54467986596E-05  4.60184490142E-05  4.65972898451E-05
  4.71834115974E-05  4.77769058537E-05  4.83778653487E-05  4.89863839836E-05
  4.96025568407E-05  5.02264801982E-05  5.08582515455E-05  5.14979695980E-05
  5.21457343130E-05  5.28016469051E-05  5.34658098620E-05  5.41383269604E-05
  5.48193032826E-05  5.55088452324E-05  5.62070605522E-05  5.69140583396E-05
  5.76299490644E-05  5.83548445860E-05  5.90888581708E-05  5.98321045099E-05
  6.05846997371E-05  6.13467614468E-05  6.21184087128E-05  6.28997621066E-05
  6.36909437162E-05  6.44920771653E-05  6.53032876327E-05  6.61247018716E-05
  6.69564482298E-05  6.77986566691E-05  6.86514587866E-05  6.95149878341E-05
  7.03893787399E-05  7.12747681294E-05  7.21712943464E-05  7.30790974749E-05
  7.39983193612E-05  7.49291036353E-05  7.58715957344E-05  7.68259429246E-05
  7.77922943248E-05  7.87708009292E-05  7.97616156315E-05  8.07648932485E-05
  8.17807905444E-05  8.28094662552E-05  8.38510811136E-05  8.49057978741E-05
  8.59737813381E-05  8.70551983805E-05  8.81502179747E-05  8.92590112197E-05
  9.03817513669E-05  9.15186138467E-05  9.26697762960E-05  9.38354185864E-05
  9.50157228519E-05  9.62108735174E-05  9.74210573276E-05  9.86464633762E-05
  9.98872831355E-05  1.01143710486E-04  1.02415941747E-04  1.03704175707E-04
  1.05008613656E-04  1.06329459414E-04  1.07666919367E-04  1.09021202494E-04
  1.10392520407E-04  1.11781087375E-04  1.13187120366E-04  1.14610839075E-04
  1.16052465960E-04  1.17512226279E-04  1.18990348123E-04  1.20487062450E-04
  1.22002603127E-04  1.23537206958E-04  1.25091113729E-04  1.26664566241E-04
  1.28257810350E-04  1.29871095002E-04  1.31504672277E-04  1.33158797425E-04
  1.34833728905E-04  1.36529728430E-04  1.38247061003E-04  1.39985994961E-04
  1.41746802015E-04  1.43529757295E-04  1.45335139392E-04  1.47163230400E-04
  1.49014315962E-04  1.50888685314E-04  1.52786631330E-04  1.54708450568E-04
  1.56654443317E-04  1.58624913641E-04  1.60620169430E-04  1.62640522448E-04
  1.64686288378E-04  1.66757786876E-04  1.68855341617E-04  1.70979280349E-04